15
 energy: -26.887516021351 gnorm: 0.000657779644 xtb: 6.5.1 (b24c23e)
O           -0.21624071560851       -0.47128230949252        0.05973238891849
O            1.22492129256742        1.23530312081952       -0.10248401548433
C           -1.30867150601755        0.45681731962975        0.05475536388104
C           -2.59798825064213       -0.36490330208906       -0.02148747161962
C            1.01147814141657        0.05714726693417       -0.01998167225995
C            2.06768088371519       -1.01735956421325        0.00257629579747
H           -1.28458787358176        1.06057720487807        0.96930739599594
H           -1.21800184578219        1.12698887850511       -0.80913890642956
O           -3.71916733011973        0.48491125583179       -0.02386460140259
H           -2.57435265650644       -1.00624321681964       -0.91657769411610
H           -2.67867292680393       -1.00388741399375        0.86445330462429
H            1.92475395230144       -1.67727734793976       -0.85173526219724
H            1.96383748242679       -1.60579445381608        0.91271540778876
H            3.05422637338849       -0.56295606066400       -0.03889382504994
H           -3.76799902075362        0.98413462242969       -0.84861170844668
